Title: lpf
Date: Fri Jun 11 23:23:36  2021
Plotname: AC Analysis
Flags: complex
No. Variables: 3
No. Points: 241
Variables:
	0	frequency	frequency grid=3
	1	v(n002)	voltage
	2	db(v(n002))	decibel
Values:
 0	1.000000000000000e+02,0.000000000000000e+00
	9.999999998420864e-01,-1.256637061237477e-05
	-6.858094433629749e-10,0.0

 1	1.059253725177289e+02,0.000000000000000e+00
	9.999999998228180e-01,-1.331097488285990e-05
	-7.694918522625464e-10,0.0

 2	1.122018454301963e+02,0.000000000000000e+00
	9.999999998011986e-01,-1.409969973010585e-05
	-8.633835960523325e-10,0.0

 3	1.188502227437018e+02,0.000000000000000e+00
	9.999999997769410e-01,-1.493515946263355e-05
	-9.687334788019902e-10,0.0

 4	1.258925411794167e+02,0.000000000000000e+00
	9.999999997497236e-01,-1.582012329648084e-05
	-1.086936882356213e-09,0.0

 5	1.333521432163324e+02,0.000000000000000e+00
	9.999999997191853e-01,-1.675752453404959e-05
	-1.219563731831296e-09,0.0

 6	1.412537544622754e+02,0.000000000000000e+00
	9.999999996849209e-01,-1.775047028683363e-05
	-1.368371031872235e-09,0.0

 7	1.496235656094433e+02,0.000000000000000e+00
	9.999999996464753e-01,-1.880225177425444e-05
	-1.535338546769046e-09,0.0

 8	1.584893192461114e+02,0.000000000000000e+00
	9.999999996033389e-01,-1.991635523274119e-05
	-1.722677479404022e-09,0.0

 9	1.678804018122561e+02,0.000000000000000e+00
	9.999999995549389e-01,-2.109647347121423e-05
	-1.932875794642740e-09,0.0

 10	1.778279410038923e+02,0.000000000000000e+00
	9.999999995006332e-01,-2.234651811127398e-05
	-2.168722327520829e-09,0.0

 11	1.883649089489801e+02,0.000000000000000e+00
	9.999999994397013e-01,-2.367063255266642e-05
	-2.433346320670219e-09,0.0

 12	1.995262314968880e+02,0.000000000000000e+00
	9.999999993713342e-01,-2.507320570700052e-05
	-2.730261783382766e-09,0.0

 13	2.113489039836647e+02,0.000000000000000e+00
	9.999999992946255e-01,-2.655888654523946e-05
	-3.063403171726703e-09,0.0

 14	2.238721138568340e+02,0.000000000000000e+00
	9.999999992085570e-01,-2.813259950718454e-05
	-3.437192891469562e-09,0.0

 15	2.371373705661656e+02,0.000000000000000e+00
	9.999999991119862e-01,-2.979956082402823e-05
	-3.856595300416610e-09,0.0

 16	2.511886431509581e+02,0.000000000000000e+00
	9.999999990036321e-01,-3.156529580807887e-05
	-4.327170710749369e-09,0.0

 17	2.660725059798810e+02,0.000000000000000e+00
	9.999999988820567e-01,-3.343565716696564e-05
	-4.855167000135444e-09,0.0

 18	2.818382931264454e+02,0.000000000000000e+00
	9.999999987456470e-01,-3.541684440302789e-05
	-5.447586150324340e-09,0.0

 19	2.985382618917960e+02,0.000000000000000e+00
	9.999999985925928e-01,-3.751542436218980e-05
	-6.112292251824509e-09,0.0

 20	3.162277660168380e+02,0.000000000000000e+00
	9.999999984208633e-01,-3.973835300043211e-05
	-6.858104079341139e-09,0.0

 21	3.349654391578277e+02,0.000000000000000e+00
	9.999999982281795e-01,-4.209299844000717e-05
	-7.694918525693116e-09,0.0

 22	3.548133892335755e+02,0.000000000000000e+00
	9.999999980119848e-01,-4.458716539181990e-05
	-8.633839821695138e-09,0.0

 23	3.758374042884442e+02,0.000000000000000e+00
	9.999999977694102e-01,-4.722912102492454e-05
	-9.687329006917005e-09,0.0

 24	3.981071705534973e+02,0.000000000000000e+00
	9.999999974972370e-01,-5.002762236888414e-05
	-1.086936207939064e-08,0.0

 25	4.216965034285823e+02,0.000000000000000e+00
	9.999999971918537e-01,-5.299194533982035e-05
	-1.219562478976149e-08,0.0

 26	4.466835921509632e+02,0.000000000000000e+00
	9.999999968492080e-01,-5.613191548636263e-05
	-1.368371611438792e-08,0.0

 27	4.731512589614806e+02,0.000000000000000e+00
	9.999999964647533e-01,-5.945794055740747e-05
	-1.535338065826567e-08,0.0

 28	5.011872336272723e+02,0.000000000000000e+00
	9.999999960333881e-01,-6.298104499963584e-05
	-1.722677673806984e-08,0.0

 29	5.308844442309884e+02,0.000000000000000e+00
	9.999999955493880e-01,-6.671290649913369e-05
	-1.932876278742032e-08,0.0

 30	5.623413251903492e+02,0.000000000000000e+00
	9.999999950063314e-01,-7.066589468823592e-05
	-2.168722715688539e-08,0.0

 31	5.956621435290106e+02,0.000000000000000e+00
	9.999999943970115e-01,-7.485311214589040e-05
	-2.433347095199847e-08,0.0

 32	6.309573444801933e+02,0.000000000000000e+00
	9.999999937133436e-01,-7.928843782744081e-05
	-2.730260244320766e-08,0.0

 33	6.683439175686148e+02,0.000000000000000e+00
	9.999999929462555e-01,-8.398657306777946e-05
	-3.063402308693885e-08,0.0

 34	7.079457843841381e+02,0.000000000000000e+00
	9.999999920855686e-01,-8.896309031035057e-05
	-3.437193861917802e-08,0.0

 35	7.498942093324559e+02,0.000000000000000e+00
	9.999999911198619e-01,-9.423448472351955e-05
	-3.856594922391220e-08,0.0

 36	7.943282347242816e+02,0.000000000000000e+00
	9.999999900363211e-01,-9.981822887539329e-05
	-4.327170816882887e-08,0.0

 37	8.413951416451953e+02,0.000000000000000e+00
	9.999999888205683e-01,-1.057328306483146e-04
	-4.855165565856792e-08,0.0

 38	8.912509381337458e+02,0.000000000000000e+00
	9.999999874564715e-01,-1.119978945849907e-04
	-5.447585297804305e-08,0.0

 39	9.440608762859237e+02,0.000000000000000e+00
	9.999999859259295e-01,-1.186341868695901e-04
	-6.112291210419880e-08,0.0

 40	1.000000000000000e+03,0.000000000000000e+00
	9.999999842086331e-01,-1.256637041591901e-04
	-6.858103621544643e-08,0.0

 41	1.059253725177289e+03,0.000000000000000e+00
	9.999999822817952e-01,-1.331097464937179e-04
	-7.694918556369647e-08,0.0

 42	1.122018454301964e+03,0.000000000000000e+00
	9.999999801198471e-01,-1.409969945260471e-04
	-8.633840728209325e-08,0.0

 43	1.188502227437019e+03,0.000000000000000e+00
	9.999999776941016e-01,-1.493515913282283e-04
	-9.687328669805047e-08,0.0

 44	1.258925411794168e+03,0.000000000000000e+00
	9.999999749723705e-01,-1.582012290450006e-04
	-1.086936156200189e-07,0.0

 45	1.333521432163325e+03,0.000000000000000e+00
	9.999999719185380e-01,-1.675752406817957e-04
	-1.219562419178823e-07,0.0

 46	1.412537544622755e+03,0.000000000000000e+00
	9.999999684920814e-01,-1.775046973314607e-04
	-1.368371543993366e-07,0.0

 47	1.496235656094434e+03,0.000000000000000e+00
	9.999999646475339e-01,-1.880225111619554e-04
	-1.535338126255488e-07,0.0

 48	1.584893192461114e+03,0.000000000000000e+00
	9.999999603338809e-01,-1.991635445063672e-04
	-1.722677698824944e-07,0.0

 49	1.678804018122561e+03,0.000000000000000e+00
	9.999999554938827e-01,-2.109647254168133e-04
	-1.932876163091770e-07,0.0

 50	1.778279410038924e+03,0.000000000000000e+00
	9.999999500633153e-01,-2.234651700652207e-04
	-2.168722711125950e-07,0.0

 51	1.883649089489801e+03,0.000000000000000e+00
	9.999999439701186e-01,-2.367063123966631e-04
	-2.433346894437785e-07,0.0

 52	1.995262314968880e+03,0.000000000000000e+00
	9.999999371334393e-01,-2.507320414649698e-04
	-2.730260128647835e-07,0.0

 53	2.113489039836648e+03,0.000000000000000e+00
	9.999999294625596e-01,-2.655888469057756e-04
	-3.063402222307065e-07,0.0

 54	2.238721138568341e+03,0.000000000000000e+00
	9.999999208556906e-01,-2.813259730291475e-04
	-3.437193826692782e-07,0.0

 55	2.371373705661656e+03,0.000000000000000e+00
	9.999999111986251e-01,-2.979955820424868e-04
	-3.856594883727885e-07,0.0

 56	2.511886431509582e+03,0.000000000000000e+00
	9.999999003632198e-01,-3.156529269446508e-04
	-4.327170595662527e-07,0.0

 57	2.660725059798811e+03,0.000000000000000e+00
	9.999998882056952e-01,-3.343565346642877e-04
	-4.855165244391620e-07,0.0

 58	2.818382931264456e+03,0.000000000000000e+00
	9.999998745647286e-01,-3.541684000493162e-04
	-5.447584969387419e-07,0.0

 59	2.985382618917962e+03,0.000000000000000e+00
	9.999998592593130e-01,-3.751541913504269e-04
	-6.112290796449383e-07,0.0

 60	3.162277660168382e+03,0.000000000000000e+00
	9.999998420863545e-01,-3.973834678795624e-04
	-6.858103026252064e-07,0.0

 61	3.349654391578279e+03,0.000000000000000e+00
	9.999998228179789e-01,-4.209299105646589e-04
	-7.694918082029670e-07,0.0

 62	3.548133892335757e+03,0.000000000000000e+00
	9.999998011985070e-01,-4.458715661646482e-04
	-8.633839995784044e-07,0.0

 63	3.758374042884444e+03,0.000000000000000e+00
	9.999997769410613e-01,-4.722911059539573e-04
	-9.687327709504004e-07,0.0

 64	3.981071705534976e+03,0.000000000000000e+00
	9.999997497237614e-01,-5.002760997336629e-04
	-1.086936030328373e-06,0.0

 65	4.216965034285826e+03,0.000000000000000e+00
	9.999997191854502e-01,-5.299193060772020e-04
	-1.219562265760499e-06,0.0

 66	4.466835921509634e+03,0.000000000000000e+00
	9.999996849209036e-01,-5.613189797722938e-04
	-1.368371344952512e-06,0.0

 67	4.731512589614808e+03,0.000000000000000e+00
	9.999996464754530e-01,-5.945791974776442e-04
	-1.535337870364547e-06,0.0

 68	5.011872336272727e+03,0.000000000000000e+00
	9.999996033389513e-01,-6.298102026732978e-04
	-1.722677387765898e-06,0.0

 69	5.308844442309888e+03,0.000000000000000e+00
	9.999995549390046e-01,-6.671287710473428e-04
	-1.932875775158040e-06,0.0

 70	5.623413251903496e+03,0.000000000000000e+00
	9.999995006333771e-01,-7.066585975292868e-04
	-2.168722229623909e-06,0.0

 71	5.956621435290110e+03,0.000000000000000e+00
	9.999994397014678e-01,-7.485307062520249e-04
	-2.433346289913446e-06,0.0

 72	6.309573444801938e+03,0.000000000000000e+00
	9.999993713347501e-01,-7.928838848001414e-04
	-2.730259347041640e-06,0.0

 73	6.683439175686151e+03,0.000000000000000e+00
	9.999992946260421e-01,-8.398651441825746e-04
	-3.063401256219755e-06,0.0

 74	7.079457843841385e+03,0.000000000000000e+00
	9.999992085574700e-01,-8.896302060526909e-04
	-3.437192594975360e-06,0.0

 75	7.498942093324564e+03,0.000000000000000e+00
	9.999991119869616e-01,-9.423440187888300e-04
	-3.856593337007793e-06,0.0

 76	7.943282347242821e+03,0.000000000000000e+00
	9.999990036330914e-01,-9.981813041436902e-04
	-4.327168659255477e-06,0.0

 77	8.413951416451957e+03,0.000000000000000e+00
	9.999988820580771e-01,-1.057327136271823e-03
	-4.855162796378663e-06,0.0

 78	8.912509381337462e+03,0.000000000000000e+00
	9.999987456487027e-01,-1.119977555051334e-03
	-5.447581884832105e-06,0.0

 79	9.440608762859241e+03,0.000000000000000e+00
	9.999985925949116e-01,-1.186340215728954e-03
	-6.112286938324895e-06,0.0

 80	1.000000000000001e+04,0.000000000000000e+00
	9.999984208657894e-01,-1.256635077037344e-03
	-6.858098154332948e-06,0.0

 81	1.059253725177290e+04,0.000000000000000e+00
	9.999982281826154e-01,-1.331095130060168e-03
	-7.694911948063383e-06,0.0

 82	1.122018454301964e+04,0.000000000000000e+00
	9.999980119886267e-01,-1.409967170254547e-03
	-8.633832275183779e-06,0.0

 83	1.188502227437019e+04,0.000000000000000e+00
	9.999977694150928e-01,-1.493512615182369e-03
	-9.687317970510864e-06,0.0

 84	1.258925411794168e+04,0.000000000000000e+00
	9.999974972432514e-01,-1.582008370651990e-03
	-1.086934805649199e-05,0.0

 85	1.333521432163325e+04,0.000000000000000e+00
	9.999971918615990e-01,-1.675747748130720e-03
	-1.219560724342310e-05,0.0

 86	1.412537544622756e+04,0.000000000000000e+00
	9.999968492179714e-01,-1.775041436456366e-03
	-1.368369404396171e-05,0.0

 87	1.496235656094435e+04,0.000000000000000e+00
	9.999964647657775e-01,-1.880218531053756e-03
	-1.535335429001661e-05,0.0

 88	1.584893192461115e+04,0.000000000000000e+00
	9.999960334036733e-01,-1.991627624049971e-03
	-1.722674313234239e-05,0.0

 89	1.678804018122562e+04,0.000000000000000e+00
	9.999955494078746e-01,-2.109637958880472e-03
	-1.932871902561080e-05,0.0

 90	1.778279410038924e+04,0.000000000000000e+00
	9.999950063562146e-01,-2.234640653188175e-03
	-2.168717355476160e-05,0.0

 91	1.883649089489802e+04,0.000000000000000e+00
	9.999943970429326e-01,-2.367049994039103e-03
	-2.433340153714124e-05,0.0

 92	1.995262314968881e+04,0.000000000000000e+00
	9.999937133830697e-01,-2.507304809712361e-03
	-2.730251624587847e-05,0.0

 93	2.113489039836648e+04,0.000000000000000e+00
	9.999929463051996e-01,-2.655869922569337e-03
	-3.063391533011494e-05,0.0

 94	2.238721138568341e+04,0.000000000000000e+00
	9.999920856310750e-01,-2.813237687767841e-03
	-3.437180353444912e-05,0.0

 95	2.371373705661657e+04,0.000000000000000e+00
	9.999911199405873e-01,-2.979929622861984e-03
	-3.856577925273108e-05,0.0

 96	2.511886431509582e+04,0.000000000000000e+00
	9.999900364202595e-01,-3.156498133618740e-03
	-4.327149258236020e-05,0.0

 97	2.660725059798812e+04,0.000000000000000e+00
	9.999888206932513e-01,-3.343528341687660e-03
	-4.855138371058067e-05,0.0

 98	2.818382931264456e+04,0.000000000000000e+00
	9.999874566286319e-01,-3.541640020082054e-03
	-5.447551135103243e-05,0.0

 99	2.985382618917962e+04,0.000000000000000e+00
	9.999859261273863e-01,-3.751489642768504e-03
	-6.112248226677608e-05,0.0

 100	3.162277660168382e+04,0.000000000000000e+00
	9.999842088823216e-01,-3.973772555017487e-03
	-6.858049419075239e-05,0.0

 101	3.349654391578279e+04,0.000000000000000e+00
	9.999822821086897e-01,-4.209225271541583e-03
	-7.694850595525788e-05,0.0

 102	3.548133892335757e+04,0.000000000000000e+00
	9.999801202419568e-01,-4.458627909839831e-03
	-8.633755038496658e-05,0.0

 103	3.758374042884444e+04,0.000000000000000e+00
	9.999776945987147e-01,-4.722806766577419e-03
	-9.687220733908614e-05,0.0

 104	3.981071705534976e+04,0.000000000000000e+00
	9.999749729962424e-01,-5.002637045259533e-03
	-1.086922564321845e-04,0.0

 105	4.216965034285826e+04,0.000000000000000e+00
	9.999719193256797e-01,-5.299045743906666e-03
	-1.219545313449584e-04,0.0

 106	4.466835921509634e+04,0.000000000000000e+00
	9.999684930731574e-01,-5.613014711906230e-03
	-1.368350003320668e-04,0.0

 107	4.731512589614809e+04,0.000000000000000e+00
	9.999646487825495e-01,-5.945583885701275e-03
	-1.535311004449774e-04,0.0

 108	5.011872336272727e+04,0.000000000000000e+00
	9.999603354527316e-01,-6.297854713481091e-03
	-1.722643564754259e-04,0.0

 109	5.308844442309887e+04,0.000000000000000e+00
	9.999554958613747e-01,-6.670993779559482e-03
	-1.932833192549449e-04,0.0

 110	5.623413251903495e+04,0.000000000000000e+00
	9.999500658063287e-01,-7.066236639662909e-03
	-2.168668622776628e-04,0.0

 111	5.956621435290109e+04,0.000000000000000e+00
	9.999439732545649e-01,-7.484891878900887e-03
	-2.433278803139961e-04,0.0

 112	6.309573444801938e+04,0.000000000000000e+00
	9.999371373874348e-01,-7.928345404752067e-03
	-2.730174389357727e-04,0.0

 113	6.683439175686151e+04,0.000000000000000e+00
	9.999294675296285e-01,-8.398064987968103e-03
	-3.063294299861145e-04,0.0

 114	7.079457843841385e+04,0.000000000000000e+00
	9.999208619476985e-01,-8.895605064869331e-03
	-3.437057945149588e-04,0.0

 115	7.498942093324565e+04,0.000000000000000e+00
	9.999112065022973e-01,-9.422611815075773e-03
	-3.856423823331554e-04,0.0

 116	7.943282347242822e+04,0.000000000000000e+00
	9.999003731363570e-01,-9.980828529277381e-03
	-4.326955257023825e-04,0.0

 117	8.413951416451958e+04,0.000000000000000e+00
	9.998882181793037e-01,-1.057210128218983e-02
	-4.854894140060174e-04,0.0

 118	8.912509381337464e+04,0.000000000000000e+00
	9.998745804449763e-01,-1.119838492635609e-02
	-5.447243669535963e-04,0.0

 119	9.440608762859243e+04,0.000000000000000e+00
	9.998592790982556e-01,-1.186174942292671e-02
	-6.111861154995546e-04,0.0

 120	1.000000000000001e+05,0.000000000000000e+00
	9.998421112623725e-01,-1.256438652596633e-02
	-6.857562130790549e-04,0.0

 121	1.059253725177290e+05,0.000000000000000e+00
	9.998228493355233e-01,-1.330861683717263e-02
	-7.694237144511700e-04,0.0

 122	1.122018454301965e+05,0.000000000000000e+00
	9.998012379816357e-01,-1.409689724813167e-02
	-8.632982761716691e-04,0.0

 123	1.188502227437020e+05,0.000000000000000e+00
	9.997769907559425e-01,-1.493182878734260e-02
	-9.686248512381339e-04,0.0

 124	1.258925411794169e+05,0.000000000000000e+00
	9.997497863213129e-01,-1.581616488919197e-02
	-1.086800171310193e-03,0.0

 125	1.333521432163326e+05,0.000000000000000e+00
	9.997192642060508e-01,-1.675282010179936e-02
	-1.219391233240278e-03,0.0

 126	1.412537544622756e+05,0.000000000000000e+00
	9.996850200480275e-01,-1.774487925014626e-02
	-1.368156032692647e-03,0.0

 127	1.496235656094435e+05,0.000000000000000e+00
	9.996466002634935e-01,-1.879560707007643e-02
	-1.535066816792083e-03,0.0

 128	1.584893192461116e+05,0.000000000000000e+00
	9.996034960716551e-01,-1.990845832755003e-02
	-1.722336160427493e-03,0.0

 129	1.678804018122563e+05,0.000000000000000e+00
	9.995551367980299e-01,-2.108708843586062e-02
	-1.932446207154089e-03,0.0

 130	1.778279410038925e+05,0.000000000000000e+00
	9.995008823706133e-01,-2.233536458128279e-02
	-2.168181456449465e-03,0.0

 131	1.883649089489803e+05,0.000000000000000e+00
	9.994400149129269e-01,-2.365737736469056e-02
	-2.432665524435530e-03,0.0

 132	1.995262314968882e+05,0.000000000000000e+00
	9.993717293269720e-01,-2.505745296292881e-02
	-2.729402355913070e-03,0.0

 133	2.113489039836650e+05,0.000000000000000e+00
	9.992951227468907e-01,-2.654016580896660e-02
	-3.062322421991333e-03,0.0

 134	2.238721138568343e+05,0.000000000000000e+00
	9.992091827306313e-01,-2.811035178390980e-02
	-3.435834500567380e-03,0.0

 135	2.371373705661659e+05,0.000000000000000e+00
	9.991127740420362e-01,-2.977312190656821e-02
	-3.854883706877000e-03,0.0

 136	2.511886431509584e+05,0.000000000000000e+00
	9.990046238593994e-01,-3.153387649717989e-02
	-4.325016519206052e-03,0.0

 137	2.660725059798813e+05,0.000000000000000e+00
	9.988833052286094e-01,-3.339831978076675e-02
	-4.852453631186291e-03,0.0

 138	2.818382931264458e+05,0.000000000000000e+00
	9.987472185593812e-01,-3.537247488204411e-02
	-5.444171557940428e-03,0.0

 139	2.985382618917964e+05,0.000000000000000e+00
	9.985945709417549e-01,-3.746269914738410e-02
	-6.107994029270083e-03,0.0

 140	3.162277660168384e+05,0.000000000000000e+00
	9.984233530369147e-01,-3.967569970950938e-02
	-6.852694320284397e-03,0.0

 141	3.349654391578281e+05,0.000000000000000e+00
	9.982313132714968e-01,-4.201854918675281e-02
	-7.688109798898692e-03,0.0

 142	3.548133892335760e+05,0.000000000000000e+00
	9.980159290378979e-01,-4.449870138014769e-02
	-8.625270111723662e-03,0.0

 143	3.758374042884447e+05,0.000000000000000e+00
	9.977743745748180e-01,-4.712400679747685e-02
	-9.676540585551554e-03,0.0

 144	3.981071705534979e+05,0.000000000000000e+00
	9.975034851725586e-01,-4.990272779275336e-02
	-1.085578259192624e-02,0.0

 145	4.216965034285829e+05,0.000000000000000e+00
	9.971997173167488e-01,-5.284355306132596e-02
	-1.217853280772632e-02,0.0

 146	4.466835921509638e+05,0.000000000000000e+00
	9.968591043527171e-01,-5.595561117364242e-02
	-1.366220350565133e-02,0.0

 147	4.731512589614813e+05,0.000000000000000e+00
	9.964772072212932e-01,-5.924848276323314e-02
	-1.532630622528116e-02,0.0

 148	5.011872336272731e+05,0.000000000000000e+00
	9.960490597863884e-01,-6.273221090508592e-02
	-1.719270140772602e-02,0.0

 149	5.308844442309892e+05,0.000000000000000e+00
	9.955691082465347e-01,-6.641730912747472e-02
	-1.928587682377814e-02,0.0

 150	5.623413251903499e+05,0.000000000000000e+00
	9.950311440983377e-01,-7.031476639149678e-02
	-2.163325788571104e-02,0.0

 151	5.956621435290114e+05,0.000000000000000e+00
	9.944282301017334e-01,-7.443604824590878e-02
	-2.426555320371739e-02,0.0

 152	6.309573444801943e+05,0.000000000000000e+00
	9.937526186878748e-01,-7.879309321803528e-02
	-2.721713902572293e-02,0.0

 153	6.683439175686156e+05,0.000000000000000e+00
	9.929956622540581e-01,-8.339830333215893e-02
	-3.052648647862615e-02,0.0

 154	7.079457843841390e+05,0.000000000000000e+00
	9.921477148108971e-01,-8.826452745249347e-02
	-3.423663580245050e-02,0.0

 155	7.498942093324569e+05,0.000000000000000e+00
	9.911980244907400e-01,-9.340503592630513e-02
	-3.839572202640214e-02,0.0

 156	7.943282347242826e+05,0.000000000000000e+00
	9.901346165001755e-01,-9.883348475200951e-02
	-4.305755676434275e-02,0.0

 157	8.413951416451962e+05,0.000000000000000e+00
	9.889441662121502e-01,-1.045638672157127e-01
	-4.828227098937121e-02,0.0

 158	8.912509381337467e+05,0.000000000000000e+00
	9.876118622552659e-01,-1.106104506271970e-01
	-5.413702376125959e-02,0.0

 159	9.440608762859247e+05,0.000000000000000e+00
	9.861212596819615e-01,-1.169876954436786e-01
	-6.069678189854034e-02,0.0

 160	1.000000000000001e+06,0.000000000000000e+00
	9.844541235984988e-01,-1.237101536997291e-01
	-6.804517547446412e-02,0.0

 161	1.059253725177290e+06,0.000000000000000e+00
	9.825902640354930e-01,-1.307923432703655e-01
	-7.627543372995535e-02,0.0

 162	1.122018454301965e+06,0.000000000000000e+00
	9.805073633481790e-01,-1.382485940911554e-01
	-8.549140548492019e-02,0.0

 163	1.188502227437020e+06,0.000000000000000e+00
	9.781807980830728e-01,-1.460928620591559e-01
	-9.580866732906605e-02,0.0

 164	1.258925411794169e+06,0.000000000000000e+00
	9.755834580565571e-01,-1.543385059632463e-01
	-1.073557217100002e-01,0.0

 165	1.333521432163326e+06,0.000000000000000e+00
	9.726855663865424e-01,-1.629980224721565e-01
	-1.202752854231051e-01,0.0

 166	1.412537544622756e+06,0.000000000000000e+00
	9.694545054257419e-01,-1.720827339841862e-01
	-1.347256668445314e-01,0.0

 167	1.496235656094436e+06,0.000000000000000e+00
	9.658546549864918e-01,-1.816024240681180e-01
	-1.508822274242080e-01,0.0

 168	1.584893192461116e+06,0.000000000000000e+00
	9.618472509386208e-01,-1.915649153692779e-01
	-1.689389193485166e-01,0.0

 169	1.678804018122563e+06,0.000000000000000e+00
	9.573902742089696e-01,-2.019755853043722e-01
	-1.891098867653828e-01,0.0

 170	1.778279410038925e+06,0.000000000000000e+00
	9.524383824020262e-01,-2.128368157284776e-01
	-2.116311124120278e-01,0.0

 171	1.883649089489803e+06,0.000000000000000e+00
	9.469428986586236e-01,-2.241473741506409e-01
	-2.367620847840207e-01,0.0

 172	1.995262314968882e+06,0.000000000000000e+00
	9.408518749012516e-01,-2.359017261404656e-01
	-2.647874530463818e-01,0.0

 173	2.113489039836650e+06,0.000000000000000e+00
	9.341102491604644e-01,-2.480892814569776e-01
	-2.960186276740296e-01,0.0

 174	2.238721138568343e+06,0.000000000000000e+00
	9.266601190570597e-01,-2.606935802934465e-01
	-3.307952743550853e-01,0.0

 175	2.371373705661659e+06,0.000000000000000e+00
	9.184411554759762e-01,-2.736914310020133e-01
	-3.694866371390290e-01,0.0

 176	2.511886431509584e+06,0.000000000000000e+00
	9.093911816731037e-01,-2.870520168337089e-01
	-4.124926144527069e-01,0.0

 177	2.660725059798813e+06,0.000000000000000e+00
	8.994469430791014e-01,-3.007359966228872e-01
	-4.602444989216458e-01,0.0

 178	2.818382931264458e+06,0.000000000000000e+00
	8.885450913939100e-01,-3.146946328644615e-01
	-5.132052796373777e-01,0.0

 179	2.985382618917964e+06,0.000000000000000e+00
	8.766234026260958e-01,-3.288689900163006e-01
	-5.718693945925738e-01,0.0

 180	3.162277660168384e+06,0.000000000000000e+00
	8.636222419236989e-01,-3.431892556278284e-01
	-6.367618127488283e-01,0.0

 181	3.349654391578281e+06,0.000000000000000e+00
	8.494862778153581e-01,-3.575742463024515e-01
	-7.084363211830529e-01,0.0

 182	3.548133892335759e+06,0.000000000000000e+00
	8.341664344272587e-01,-3.719311685005340e-01
	-7.874728947976363e-01,0.0

 183	3.758374042884447e+06,0.000000000000000e+00
	8.176220522375427e-01,-3.861557094390962e-01
	-8.744740361356561e-01,0.0

 184	3.981071705534978e+06,0.000000000000000e+00
	7.998232062843333e-01,-4.001325342600650e-01
	-9.700599928349006e-01,0.0

 185	4.216965034285828e+06,0.000000000000000e+00
	7.807531063575943e-01,-4.137362605217983e-01
	-1.074862791806606e+00,0.0

 186	4.466835921509637e+06,0.000000000000000e+00
	7.604104782008917e-01,-4.268329683180329e-01
	-1.189519073333247e+00,0.0

 187	4.731512589614811e+06,0.000000000000000e+00
	7.388118005255331e-01,-4.392822827405550e-01
	-1.314661764935801e+00,0.0

 188	5.011872336272730e+06,0.000000000000000e+00
	7.159932528038334e-01,-4.509400345314433e-01
	-1.450910702673821e+00,0.0

 189	5.308844442309891e+06,0.000000000000000e+00
	6.920122169387429e-01,-4.616614653036022e-01
	-1.598862383434631e+00,0.0

 190	5.623413251903499e+06,0.000000000000000e+00
	6.669481756224395e-01,-4.713048977640050e-01
	-1.759079110843816e+00,0.0

 191	5.956621435290113e+06,0.000000000000000e+00
	6.409028645492915e-01,-4.797357426352596e-01
	-1.932077873094107e+00,0.0

 192	6.309573444801942e+06,0.000000000000000e+00
	6.139995664164527e-01,-4.868306675394031e-01
	-2.118319355412567e+00,0.0

 193	6.683439175686155e+06,0.000000000000000e+00
	5.863814816531004e-01,-4.924817150183497e-01
	-2.318197534809527e+00,0.0

 194	7.079457843841389e+06,0.000000000000000e+00
	5.582091714671418e-01,-4.966001332632814e-01
	-2.532030322600555e+00,0.0

 195	7.498942093324569e+06,0.000000000000000e+00
	5.296571379730940e-01,-4.991196792025384e-01
	-2.760051705322875e+00,0.0

 196	7.943282347242827e+06,0.000000000000000e+00
	5.009096766583864e-01,-4.999991724876924e-01
	-3.002405784547306e+00,0.0

 197	8.413951416451963e+06,0.000000000000000e+00
	4.721561998906572e-01,-4.992241208069488e-01
	-3.259143032125493e+00,0.0

 198	8.912509381337468e+06,0.000000000000000e+00
	4.435862783660631e-01,-4.968072986696237e-01
	-3.530218965221341e+00,0.0

 199	9.440608762859248e+06,0.000000000000000e+00
	4.153846737685737e-01,-4.927882370417838e-01
	-3.815495314420574e+00,0.0

 200	1.000000000000001e+07,0.000000000000000e+00
	3.877266367391508e-01,-4.872316614323184e-01
	-4.114743620274719e+00,0.0

 201	1.059253725177290e+07,0.000000000000000e+00
	3.607737194236702e-01,-4.802249918495299e-01
	-4.427651061771578e+00,0.0

 202	1.122018454301965e+07,0.000000000000000e+00
	3.346703048804643e-01,-4.718750808335628e-01
	-4.753828206529292e+00,0.0

 203	1.188502227437020e+07,0.000000000000000e+00
	3.095409929137974e-01,-4.623044090420703e-01
	-5.092818286555906e+00,0.0

 204	1.258925411794169e+07,0.000000000000000e+00
	2.854889115982734e-01,-4.516469782393176e-01
	-5.444107551071048e+00,0.0

 205	1.333521432163326e+07,0.000000000000000e+00
	2.625949542695932e-01,-4.400441389926055e-01
	-5.807136230825096e+00,0.0

 206	1.412537544622757e+07,0.000000000000000e+00
	2.409178803936239e-01,-4.276405678841372e-01
	-6.181309664270856e+00,0.0

 207	1.496235656094436e+07,0.000000000000000e+00
	2.204951707519292e-01,-4.145805716950648e-01
	-6.566009179365339e+00,0.0

 208	1.584893192461116e+07,0.000000000000000e+00
	2.013444955586489e-01,-4.010048499293769e-01
	-6.960602388212944e+00,0.0

 209	1.678804018122563e+07,0.000000000000000e+00
	1.834656387685512e-01,-3.870477982882717e-01
	-7.364452626956782e+00,0.0

 210	1.778279410038926e+07,0.000000000000000e+00
	1.668427212761604e-01,-3.728353894593777e-01
	-7.776927352396440e+00,0.0

 211	1.883649089489803e+07,0.000000000000000e+00
	1.514465769476957e-01,-3.584836276296610e-01
	-8.197405383068757e+00,0.0

 212	1.995262314968883e+07,0.000000000000000e+00
	1.372371548686859e-01,-3.440975416829278e-01
	-8.625282940961768e+00,0.0

 213	2.113489039836650e+07,0.000000000000000e+00
	1.241658452349110e-01,-3.297706598713887e-01
	-9.059978507450859e+00,0.0

 214	2.238721138568343e+07,0.000000000000000e+00
	1.121776518166414e-01,-3.155848954711644e-01
	-9.500936551960752e+00,0.0

 215	2.371373705661659e+07,0.000000000000000e+00
	1.012131584388579e-01,-3.016107673769100e-01
	-9.947630224181729e+00,0.0

 216	2.511886431509584e+07,0.000000000000000e+00
	9.121025877256063e-02,-2.879078801755922e-01
	-1.039956312134843e+01,0.0

 217	2.660725059798814e+07,0.000000000000000e+00
	8.210563698093286e-02,-2.745255932638852e-01
	-1.085627025271862e+01,0.0

 218	2.818382931264459e+07,0.000000000000000e+00
	7.383600106712510e-02,-2.615038164416355e-01
	-1.131731832587645e+01,0.0

 219	2.985382618917965e+07,0.000000000000000e+00
	6.633908123032703e-02,-2.488738787656171e-01
	-1.178230547579307e+01,0.0

 220	3.162277660168385e+07,0.000000000000000e+00
	5.955441254509053e-02,-2.366594272187349e-01
	-1.225086054953854e+01,0.0

 221	3.349654391578282e+07,0.000000000000000e+00
	5.342392538202382e-02,-2.248773211749014e-01
	-1.272264204874721e+01,0.0

 222	3.548133892335761e+07,0.000000000000000e+00
	4.789236878428112e-02,-2.135384972235956e-01
	-1.319733681969704e+01,0.0

 223	3.758374042884448e+07,0.000000000000000e+00
	4.290759208244627e-02,-2.026487863870215e-01
	-1.367465856817802e+01,0.0

 224	3.981071705534980e+07,0.000000000000000e+00
	3.842070888634418e-02,-1.922096720121414e-01
	-1.415434626392925e+01,0.0

 225	4.216965034285830e+07,0.000000000000000e+00
	3.438616566792786e-02,-1.822189816637819e-01
	-1.463616248781082e+01,0.0

 226	4.466835921509639e+07,0.000000000000000e+00
	3.076173478733930e-02,-1.726715102737354e-01
	-1.511989176434834e+01,0.0

 227	4.731512589614813e+07,0.000000000000000e+00
	2.750844927275889e-02,-1.635595747468394e-01
	-1.560533891299380e+01,0.0

 228	5.011872336272731e+07,0.000000000000000e+00
	2.459049412803782e-02,-1.548735023384464e-01
	-1.609232744342858e+01,0.0

 229	5.308844442309893e+07,0.000000000000000e+00
	2.197506653356001e-02,-1.466020565490321e-01
	-1.658069801345693e+01,0.0

 230	5.623413251903501e+07,0.000000000000000e+00
	1.963221510045029e-02,-1.387328051713074e-01
	-1.707030696241620e+01,0.0

 231	5.956621435290115e+07,0.000000000000000e+00
	1.753466637516418e-02,-1.312524355974999e-01
	-1.756102492845131e+01,0.0

 232	6.309573444801944e+07,0.000000000000000e+00
	1.565764508378691e-02,-1.241470226554671e-01
	-1.805273555434022e+01,0.0

 233	6.683439175686158e+07,0.000000000000000e+00
	1.397869314855378e-02,-1.174022541794337e-01
	-1.854533428368672e+01,0.0

 234	7.079457843841392e+07,0.000000000000000e+00
	1.247749128754344e-02,-1.110036193045646e-01
	-1.903872724709536e+01,0.0

 235	7.498942093324572e+07,0.000000000000000e+00
	1.113568600020334e-02,-1.049365641590586e-01
	-1.953283023629851e+01,0.0

 236	7.943282347242829e+07,0.000000000000000e+00
	9.936723921461232e-03,-9.918661925466504e-02
	-2.002756776301620e+01,0.0

 237	8.413951416451965e+07,0.000000000000000e+00
	8.865694870232404e-03,-9.373950247734592e-02
	-2.052287219850885e+01,0.0

 238	8.912509381337471e+07,0.000000000000000e+00
	7.909184399712011e-03,-8.858120117634082e-02
	-2.101868298925472e+01,0.0

 239	9.440608762859251e+07,0.000000000000000e+00
	7.055136254397024e-03,-8.369803645742782e-02
	-2.151494594388535e+01,0.0

 240	1.000000000000002e+08,0.000000000000000e+00
	6.292724832125683e-03,-7.907671241467257e-02
	-2.201161258639008e+01,0.0

